# vtk DataFile Version 4.0
vtk output
ASCII
DATASET UNSTRUCTURED_GRID
POINTS 297 float
5112.44 63259.7 0 5027.21 63252.7 0 5161.54 63321.1 0 
5030.3 63251.6 0 5162.56 63339.6 0 5146.29 63267.3 0 
4913.07 63260.8 0 5136.19 63260.7 0 5146.97 63267.6 0 
5009.64 63250.2 0 5162.33 63318 0 5161.02 63333 0 
5160.18 63299.6 0 5160.95 63318.5 0 5166.26 63262.8 0 
5163.95 63331.4 0 5026.28 63254 0 4930.47 63293.3 0 
5009.64 63255.7 0 5166.22 63275.7 0 5162.51 63310.1 0 
5162.81 63310.8 0 5137.99 63261.9 0 5165.48 63259.1 0 
5159.41 63288.2 0 4952.51 63320.3 0 5015.16 63234.4 0 
5147.63 63267.3 0 5012.88 63240.8 0 5159.45 63310 0 
5043.71 63247 0 5165.18 63340 0 5136.15 63261.3 0 
5165.47 63273.8 0 5024.31 63254.1 0 4946.32 63312.7 0 
5160.39 63318.3 0 5072.74 63248.2 0 5105.59 63258.6 0 
5166.38 63259 0 4904.6 63245 0 5163.25 63308.3 0 
5061.74 63248.3 0 5164.46 63300.3 0 5162.39 63238.9 0 
4961.67 63330.9 0 5161.82 63318.3 0 5129.27 63260.7 0 
5163.96 63268.4 0 5152.12 63274.6 0 5164.39 63293.8 0 
5165.29 63262 0 5165.32 63273 0 5144.92 63264.9 0 
5010.24 63250.2 0 5011.19 63245.4 0 5011.62 63247.2 0 
4969.45 63275.2 0 5011.93 63244.3 0 5121.44 63260.6 0 
5139.08 63262.9 0 5164.3 63338 0 5164.78 63274 0 
4950.52 63317.8 0 5160.48 63310.4 0 5165.42 63338.6 0 
4907.39 63250.4 0 5140.4 63263.5 0 5044.43 63247.5 0 
5033.01 63250.4 0 5162.61 63327.1 0 5045.9 63247.6 0 
5161.41 63324.5 0 5159.76 63324.7 0 5026.22 63253.5 0 
5011.62 63264.4 0 5165.74 63266.8 0 5086.21 63252.2 0 
5061.13 63246.7 0 4954.99 63323.5 0 5021.11 63257.2 0 
5010.61 63248.7 0 5166.14 63280 0 5119.53 63259.7 0 
5100.26 63257.1 0 5145.35 63267.2 0 5151.04 63273.6 0 
5040.95 63248.5 0 4961.88 63330.3 0 5006.97 63266.1 0 
5100.04 63257.6 0 5144.75 63267.1 0 5141.76 63263.7 0 
5007.69 63265 0 5103.14 63257.5 0 5163.04 63335 0 
5161.6 63330.2 0 5150.24 63270.9 0 5166.15 63273.1 0 
5166.28 63268.6 0 5160.47 63296 0 5050.11 63246.9 0 
5163.47 63314.2 0 5156.52 63281.1 0 5162.94 63318.1 0 
4962.46 63276.4 0 5159.87 63310.6 0 5164.43 63250.6 0 
5008.51 63264.2 0 5143.4 63265.8 0 5007.72 63263.7 0 
5021.97 63255.8 0 5160.47 63321.8 0 5159.91 63318.2 0 
5072.76 63248.9 0 5162.32 63333.7 0 5164.68 63255.1 0 
5160.17 63305.7 0 5165.32 63280.1 0 5162.29 63250.1 0 
5162.26 63314.6 0 5163.51 63333.7 0 5144.73 63265.7 0 
5068.15 63248 0 5100.3 63256.6 0 5163.69 63250.8 0 
5156.16 63281.5 0 5022.86 63254.1 0 5145.97 63266.4 0 
5106.12 63259.6 0 5163.9 63321.4 0 5097.5 63255.7 0 
5124.64 63260.3 0 5160.22 63315.4 0 5160.92 63304.6 0 
5048.11 63248.9 0 5112.91 63261 0 5047.16 63246.9 0 
5008 63266.9 0 5162.25 63244 0 5163.58 63300.1 0 
5164.73 63284.9 0 5024.33 63253.5 0 5162.29 63325.1 0 
5161.11 63237.2 0 5008.52 63267 0 5162.41 63320 0 
5103.24 63256.9 0 5160.24 63291.3 0 5164.57 63257.4 0 
5093.36 63254.5 0 5165.14 63254.4 0 5159.18 63291.1 0 
5140.07 63262.7 0 4944.51 63310.6 0 5010.35 63252.8 0 
5165.5 63287.1 0 5164.49 63295.4 0 5161.82 63327.1 0 
5161.44 63322.1 0 5161.78 63326.3 0 5165.2 63276.4 0 
5008.97 63249.8 0 5061.65 63247.3 0 5164.85 63293.4 0 
5053.33 63246.9 0 5148.96 63269.6 0 5141.74 63264.4 0 
5166.32 63260.8 0 5014.26 63239.2 0 5056.48 63247.5 0 
5164.84 63290.6 0 5140.03 63263.9 0 5164.28 63335.9 0 
5008.6 63259.9 0 5164.08 63318.7 0 4947.15 63312.8 0 
5150.23 63271.5 0 5159.36 63293.2 0 5166.42 63285.5 0 
5163.6 63326.8 0 4913.6 63261.9 0 5164.67 63280.6 0 
5108.08 63258.6 0 5161.03 63326.7 0 5017.71 63257.6 0 
5163.92 63276.6 0 5164.4 63278.7 0 5153.78 63278.9 0 
5159.63 63302.4 0 5008.93 63258.8 0 4902.49 63315.2 0 
5161.77 63303.5 0 5161.08 63297.5 0 5160.59 63317.2 0 
5161.29 63325.4 0 5164.56 63267.9 0 5160.56 63239.3 0 
5164.87 63250.3 0 5161.56 63297.1 0 5152.58 63270.1 0 
4933.12 63295 0 5116.35 63259.3 0 5161.21 63239.6 0 
5160.19 63312.1 0 5041.3 63246.4 0 4955.07 63322.1 0 
5159.45 63317.8 0 5164.16 63286.8 0 5039.8 63249.4 0 
5158.76 63302.7 0 5161.12 63301.7 0 5163.43 63249.3 0 
5055.2 63248.5 0 5164.53 63251.8 0 5009.52 63266.1 0 
5165.23 63247.1 0 5161.93 63238.9 0 5048.51 63247.7 0 
5164.29 63248.4 0 5162.57 63236.5 0 5162.93 63314.9 0 
5146.5 63266 0 5155.12 63282.2 0 5163.81 63332.8 0 
5162.78 63250.8 0 5112.9 63259.1 0 5160.64 63308.9 0 
5031.95 63251.4 0 5162.54 63304.5 0 5154.69 63273.6 0 
5161.92 63244.7 0 5020.52 63255.3 0 5164.62 63277.6 0 
5165.18 63268 0 5142.79 63265.9 0 5163.94 63283.8 0 
4927.22 63285.9 0 5054.77 63247.5 0 4934.78 63297.6 0 
5163.24 63235.2 0 5160.41 63324.9 0 5164.79 63270.8 0 
5162.73 63340.6 0 4950.26 63316.9 0 5012.78 63238.3 0 
5164.72 63329.5 0 5163.59 63319.9 0 5164.22 63340.1 0 
5164.52 63263.6 0 5119.85 63260.5 0 5012.19 63246.1 0 
5138.33 63263.5 0 5098.84 63258 0 5104.63 63258.3 0 
5140.11 63262 0 5163.05 63336 0 5158.35 63302 0 
5162.81 63249.4 0 5161.71 63340.7 0 5150.04 63268.7 0 
5019.92 63254.8 0 5163.4 63340.2 0 5160.8 63328.5 0 
5156.4 63285.6 0 5164.29 63246.6 0 5162.63 63332.8 0 
5125.92 63260.8 0 5014.26 63250.8 0 5162.88 63323.6 0 
5164.34 63265.4 0 4936.07 63299.6 0 5129.08 63260 0 
5148.62 63267.7 0 5162.25 63292.3 0 5122.27 63259.7 0 
5144.41 63266.4 0 5163.27 63322.3 0 5158.87 63298.1 0 
5164.68 63288.5 0 5161.41 63336.3 0 5160.74 63236.5 0 
5165.04 63248.4 0 5023.44 63246.8 0 5109.36 63260.3 0 
5090.01 63254.2 0 5147.12 63268.3 0 5163.73 63259.8 0 
5161.87 63332.9 0 5131.49 63262.2 0 5163.54 63317.7 0 
5019.73 63254.3 0 4958.65 63327.3 0 5162.41 63329.6 0 
5166.29 63254.4 0 5023.43 63253.4 0 5163.02 63295.1 0 

CELL_TYPES 0

POINT_DATA 297
FIELD FieldData 1
unknown 1 297 float
-1.00292 0 -1.02357 1.3672e-005 -0.715344 -0.403758 -0.47124 0 0 
1.15279 0.0309641 1.02039 0 1.04244 0 0.543 1.04336 -0.529837 
0 -0.0495967 -9.938e-005 1.28504e-005 0 0 0.414957 0 1.40647e-005 
1.35237e-005 -9.90856e-005 -0.662894 1.25417e-005 -9.9223e-005 -0.0821463 0.00511817 0 0 
0.943411 1.14545e-005 0 -0.233886 -0.783242 -0.609883 -0.222796 0 -9.93492e-005 
0 0.00920919 0 1.13704e-005 0 -9.90677e-005 0 -0.212813 0.199134 
1.05099 -0.126119 0 0.567702 0 0.925439 -0.128602 1.16906e-005 0.844054 
0.118174 0 -0.675591 -0.607325 0.157548 0.0141339 0 0 0.54867 
0.356968 -0.711753 -0.852225 -0.0864004 0.0072911 0 1.30463e-005 0 0 
0.583322 1.0541 -0.14879 -0.798185 0.465885 0 0 1.01776 -0.0043606 
-0.92592 -0.17505 0 -0.942874 0 -9.91128e-005 0.0186155 1.29832e-005 0 
0.95912 0 -0.901791 0.160044 -0.177271 1.14253e-005 1.10841e-005 -0.528047 -0.78805 
0 0.719254 0 0 1.44446e-005 1.0458 0 -0.831589 -0.741979 
0 -0.646973 -0.315554 -0.895944 0.15264 0.100442 1.32385e-005 0 0 
0.690775 0 1.24106e-005 -0.178247 0 0 -0.105894 0.618963 0.403549 
0.490186 -0.66054 0.384963 -9.91715e-005 -0.0913518 0 0.959017 0 -0.599582 
0 -9.92139e-005 -0.148263 0.788627 0.430878 -0.529122 0 0 -0.0931284 
0 0.0637147 -0.235782 0 -0.197616 0.042806 -0.355952 0.665811 0.961716 
-0.875176 0 0 0.651436 -0.0204966 -0.328069 0.642729 0 0 
0 0.705677 0 0.464134 0.799499 0.386502 0 0 0.414131 
0 0 -0.748237 0 -0.278921 0.288017 -0.727473 0 1.18787e-005 
-9.9292e-005 -0.868235 -9.91228e-005 1.32727e-005 0 0 0 -0.00255942 0 
0.0258874 0 0 -9.92097e-005 1.10652e-005 0 -0.332831 0 0.915718 
0 0.0894643 0.103913 -0.7291 0 0 0.695131 -0.0596409 0.736288 
0 -0.612781 -0.0839041 0.702235 0 1.03335 -0.494596 0 0 
0 -0.967658 0.647592 0 -9.64099e-007 -2.65543e-007 -9.91049e-005 0 -0.0226956 
0 0.163409 1.05983 0 -1.00238 0 1.09944e-005 -9.93938e-005 1.00154 
1.30513e-005 0.104729 0 -9.92831e-005 0 0.195539 0.0562717 0 0 
0 0.917046 -0.272176 0.0327528 -0.81089 -0.773843 0 1.2945e-005 0.542171 
0.68017 -9.9067e-005 -1.02831 -9.91405e-005 0.784071 -9.90756e-005 -0.905148 -0.0517594 -0.398204 
-0.126688 -0.320798 -0.417046 0.504346 0.691727 0.466923 -0.8016 -0.649208 -0.805295 
-1.01972 0 0 0.995142 0.206509 1.30937e-005 -0.56755 0.693148 -0.22852 
0.800974 -0.365161 0 1.29852e-005 0 -1.0259 -0.657178 -0.421951 -0.0175497 

